# vtk DataFile Version 4.2
vtk output
ASCII
DATASET POLYDATA
POINTS 2915 float
129.464 104.06 69.6 128.353 105.529 69.1846 127.834 104.234 70.5648 
161.611 136.261 80.6395 160.676 135.348 82.2576 159.387 136.012 80.852 
147.369 139.136 93.1477 147.91 137.989 92.6301 149.188 139.054 93.0713 
143.053 87.0965 55.7066 143.264 86.4945 57.8799 141.289 86.9723 56.7038 
131.078 143.903 78.1751 129.322 144.363 79.0241 131.314 145.409 79.3003 
138.786 132.298 85.1493 139.348 132.532 83.7431 140.466 132.762 84.6654 
147.812 90.6549 68.8033 146.084 90.2934 67.9438 147.295 88.9912 67.2138 
173.625 149.38 87.3797 174.961 149.587 85.8178 173.031 149.686 85.8502 
115.33 104.143 79.4368 117.437 105.174 78.8162 116.083 105.89 80.2237 
116.538 96.7408 55.6745 115.288 96.5019 57.1639 114.998 98.1728 56.2666 
127.765 143.407 93.4238 127.569 144.973 92.0517 125.838 144.105 92.6307 
170.172 105.951 77.4422 170.73 106.239 76.9987 168.927 106.055 76.9184 
176.049 134.775 82.4891 174.686 135.615 80.9594 176.924 135.73 80.7002 
127.279 98.6156 71.7615 127.748 100.885 71.7701 125.906 99.6887 72.6709 
105.778 115.548 68.3854 104.299 116.056 69.622 106.256 116.706 69.5514 
169.688 136.699 80.1614 170.148 135.947 81.2185 168.479 136.28 80.923 
143.724 93.5461 48.8574 141.55 94.5328 48.2169 143.764 95.5892 48.1486 
153.885 102.32 77.1012 153.404 102.975 75.0862 152.512 101.238 75.6822 
165.187 135.724 82.0202 164.13 135.112 83.7312 162.919 135.53 82.0756 
108.518 123.897 92.0512 110.444 123.898 92.4672 109.428 125.734 92.4713 
173.71 91.4254 63.5541 174.174 90.1387 65.0565 172.594 90.0633 63.4283 
132.995 145.019 78.4296 133.079 146.239 79.593 138.76 99.4901 47.4492 
138.441 97.6227 47.2648 136.717 98.9267 47.1268 124.319 128.187 82.2051 
126.313 129.264 81.9697 125.857 128.186 84.1863 120.27 93.8024 69.8491 
118.219 93.3848 68.7088 120.54 92.4971 68.1392 122.566 127.308 92.295 
123.036 126.404 90.9876 123.734 127.721 91.6573 117.773 119.013 77.9065 
118.204 121.008 78.9138 119.023 118.845 80.0737 126.369 93.763 50.9957 
124.601 93.2077 52.2384 124.758 94.9665 51.0687 144.49 86.261 59.4354 
146.156 86.2609 59.9719 144.708 86.3791 61.1472 157.192 150.263 86.3309 
159.431 150.376 86.6053 159.025 150.431 84.828 133.149 87.73 61.6746 
134.465 87.4238 60.4847 134.727 88.0721 62.9162 168.926 108.114 66.3446 
171.247 108.037 66.3753 169.701 107.466 64.646 155.103 148.256 91.2822 
156.033 146.847 92.216 156.989 148.054 91.0064 136.088 108.253 59.1878 
134.49 108.371 58.9188 135.235 108.094 61.2534 116.523 103.254 78.3065 
169.493 86.3102 64.8466 169.176 87.7073 62.7685 170.84 87.4626 64.4311 
131.425 89.6229 65.4648 131.856 88.416 63.3368 133.633 89.1753 65.0668 
123.237 90.4223 65.5029 125.416 90.2344 65.6191 124.786 91.349 67.0084 
153.244 95.3336 76.9894 152.468 97.3435 76.6214 152.269 95.9846 75.344 
108.154 97.0362 66.9492 108.635 97.282 64.9316 109.976 96.1605 66.4408 
155.89 149.109 89.9562 154.317 149.191 90.3401 154.114 90.5525 72.2421 
155.666 89.0229 71.45 155.217 90.0653 72.7441 117.334 139.661 80.0598 
115.4 138.803 80.863 117.02 140.887 81.6556 170.276 141.41 77.3335 
168.513 141.562 77.436 170.061 142.79 77.2986 112.557 114.4 88.3644 
111.722 115.997 89.2781 110.768 114.89 88.6906 137.136 100.748 47.5916 
148.95 86.5266 58.9333 147.348 86.4447 58.4813 148.825 86.9461 56.9989 
179.072 148.259 89.34 179.897 147.239 90.724 181.338 148.421 89.232 
146.261 87.085 64.0065 146.806 86.4999 62.2071 147.971 86.9966 64.1759 
100.866 108.704 78.3197 101.075 107.34 77.3672 101.921 107.071 78.7114 
142.325 90.5278 50.7066 141.891 92.24 49.382 144.028 91.6527 49.9183 
107.837 108.789 61.4485 106.377 109.002 62.3488 107.655 110.401 62.6203 
151.08 150.614 84.0233 152.016 149.881 82.2872 150.303 149.609 81.7644 
140.298 105.654 66.2936 138.587 104.346 67.1736 140.682 104.043 67.682 
103.931 111.522 65.8553 103.158 110.674 66.217 103.244 111.994 67.0746 
103.436 124.812 86.7733 102.903 124.861 85.1616 102.99 123.413 86.0434 
137.643 107.741 55.6401 139.476 107.282 54.5934 137.364 107.047 53.7498 
110.288 112.173 63.775 108.368 111.944 63.8822 109.268 113.194 65.1361 
150.798 106.755 57.7768 150.532 107.423 59.9644 152.014 106.898 58.9488 
172.371 91.6555 62.2682 171.356 90.3181 62.2981 180.38 134.883 81.8227 
182.137 135.258 80.8138 182.354 134.304 83.2635 112.995 126.05 93.3794 
112.638 123.789 92.7283 114.805 124.786 93.1733 166.692 106.303 76.0347 
167.579 105.649 77.7948 163.773 150.125 88.324 163.289 150.611 86.3118 
161.209 150.257 87.8938 131.743 93.8228 48.99 133.089 92.7384 49.3153 
131.665 92.1479 50.0861 156.695 144.808 77.5694 154.476 144.985 77.539 
155.468 146.069 78.1458 103.239 117.994 86.9879 103.846 116.16 86.8868 
104.852 116.803 88.1052 121.261 125.762 92.0335 136.423 87.7993 54.9185 
138.135 87.4418 55.7754 137.051 87.2428 57.1587 157.086 140.429 93.0034 
159.06 140.315 92.7617 157.661 142.282 93.2454 150.665 140.546 93.5182 
151.548 138.531 92.872 152.961 140.159 93.4641 101.175 118.084 77.6598 
101.272 119.352 79.1022 101.786 119.723 76.7901 118.38 121.203 90.2679 
119.812 121.118 88.9734 119.696 122.271 90.1963 164.376 87.1959 60.9944 
162.336 86.8826 60.9286 163.158 88.7565 59.1689 102.099 108.806 80.366 
100.624 110.267 78.809 172.169 107.191 75.8896 172.243 107.194 75.8347 
172.984 107.208 75.1773 164.492 147.176 79.1261 164.174 148.564 80.3219 
166.374 147.999 79.9662 130.231 105.328 68.1962 130.892 106.541 66.5815 
128.913 106.699 67.5433 143.564 107.145 64.6774 143.809 106.401 65.8908 
145.321 107.328 64.4398 114.872 94.862 69.0849 116.69 94.4274 69.5673 
116.043 95.3742 70.8999 134.172 147.293 80.6234 134.958 146.228 79.0536 
155.384 93.0761 78.1932 154.327 93.5437 77.0193 155.574 91.9707 76.9062 
168.197 85.2735 65.8662 167.772 86.1071 63.7598 122.618 141.923 93.5435 
122.325 143.299 92.0725 120.888 142.034 92.6668 147.445 136.238 78.6432 
145.362 136.278 78.2007 146.665 137.895 77.4256 135.972 91.9359 67.6232 
138.208 91.5749 67.3392 137.618 93.0196 68.052 126.157 109.544 62.4257 
127.174 109.067 63.6978 127.802 109.129 61.7075 107.261 115.58 88.5173 
106.023 117.656 89.3056 151.52 86.4946 61.9895 152.106 86.7129 60.1082 
153.63 86.6931 61.7097 129.143 90.0966 65.8447 128.686 89.3099 64.4331 
130.158 89.2059 64.5269 103.07 105.476 78.5644 104.433 104.172 78.3578 
104.21 105.309 79.4685 154.192 87.1016 59.7928 119.735 110.713 60.3503 
120.436 109.789 58.7109 118.346 109.923 58.7725 115.42 132.953 78.293 
113.625 134.897 79.3238 116.241 134.951 78.4309 101.861 104.824 72.4632 
100.864 106.705 72.3707 101.889 105.308 70.8808 146.135 134.83 80.0314 
144.267 134.039 81.0032 143.834 134.953 79.2476 142.768 89.3553 51.884 
141.075 89.3093 51.8763 114.772 140.145 88.792 114.053 138.955 89.8534 
115.915 140.092 90.4675 137.968 149.598 87.9162 138.89 148.836 89.9795 
140.283 149.664 88.634 157.149 102.022 81.0184 157.909 103.476 80.3526 
155.972 103.084 78.897 113.599 120.797 74.1395 112.866 122.35 75.0209 
114.674 121.856 75.7878 127.135 108.4 56.455 128.39 107.778 55.1845 
126.62 107.768 55.0522 133.261 99.3698 47.5164 132.213 97.7211 47.7794 
131.498 99.6684 48.1579 100.654 111.749 71.0518 100.085 110.361 72.2311 
100.187 112.486 72.3453 171.069 88.8819 63.1051 112.957 95.5666 69.1889 
113.322 94.953 67.4453 113.537 113.118 64.2903 112.008 112.336 63.5531 
111.459 113.474 65.0907 175.017 99.6691 61.3334 174.064 100.252 60.7363 
175.178 100.88 61.6756 130.781 90.8547 66.9293 128.785 91.53 67.4725 
180.229 136.213 89.8701 180.496 137.688 91.4645 178.075 136.982 90.6718 
125.329 104.61 51.7173 127.545 104.531 51.4585 126.027 102.924 50.7436 
114.076 94.4083 63.2175 115.847 93.3707 62.2441 115.775 93.3035 64.8511 
170.777 134.971 86.4602 171.381 135.428 88.2065 169.35 135.621 87.7329 
174.632 147.042 91.2064 175.856 147.854 90.1638 174.156 148.049 90.1065 
160.587 99.3053 54.9619 160.744 97.4055 54.7163 159.046 98.5933 54.1774 
115.213 116.941 89.0733 115.577 115.573 88.1173 116.986 116.591 87.8693 
130.525 94.14 69.2263 130.543 92.2466 68.1224 132.342 92.8327 68.3843 
182.492 134.789 87.3641 182.534 134.349 85.632 184.221 134.381 86.6114 
173.179 86.0894 71.1243 172.922 85.9846 71.3449 171.758 85.7214 70.9555 
105.128 117.398 70.7058 103.695 117.24 71.436 149.307 143.883 77.1256 
150.778 141.918 76.8667 148.69 141.518 76.787 155.009 148.479 80.2973 
155.274 147.382 79.086 153.291 148.085 79.7293 135.153 99.619 69.0291 
136.523 100.538 68.7255 134.038 100.825 69.0799 178.118 98.8046 65.4469 
177.042 98.9944 63.9064 177.864 100.75 65.0231 173.726 148.429 81.1166 
172.6 147.637 79.8892 171.434 148.803 81.4081 146.823 96.959 70.5746 
144.583 98.3568 70.0162 145.167 95.7421 69.9064 102.034 104.976 75.8632 
101.39 105.684 75.1911 101.905 104.625 74.2112 168.93 135.655 82.1528 
176.125 94.1897 65.5101 175.171 92.5175 64.7399 175.194 94.8673 63.4954 
144.348 133.345 84.7751 144.734 133.578 86.8219 143.059 133.34 86.3046 
119.398 112.246 74.6939 119.144 112.098 76.7686 119.622 110.596 76.1184 
144.537 133.557 82.7411 145.829 133.939 81.7937 146.506 133.551 83.7399 
119.913 118.387 83.3493 120.478 120.028 83.7615 119.821 118.436 85.4029 
125.633 98.0583 72.2474 124.461 98.6512 72.9589 147.884 139.577 76.9824 
147.128 141.064 76.6818 106.747 119.753 72.3383 108.58 120.448 72.6721 
108.339 118.831 71.2779 103.912 123.777 87.9993 120.786 120.615 85.6834 
100.498 108.153 76.4273 101.21 106.512 76.326 116.654 99.0303 54.6155 
118.167 97.1295 54.0208 131.303 147.815 82.8068 131.773 146.869 80.8447 
129.572 146.862 81.837 118.283 133.638 94.5723 117.211 132.384 94.3743 
119.118 132.228 94.6635 136.185 94.0185 68.4589 138.341 94.784 68.5812 
130.187 102.665 69.9377 129.673 101.182 70.652 131.623 101.589 69.6526 
143.003 144.932 77.4509 141.604 145.74 77.9188 143.406 146.275 78.2622 
160.473 89.4124 79.7885 161.565 90.656 81.8117 159.506 91.4825 80.8368 
109.725 133.418 90.6934 109.623 131.791 91.574 111.169 133.432 92.1988 
164.177 87.5134 78.6268 164.161 88.6195 79.8612 162.554 88.4472 79.6598 
[...]
POINT_DATA 2915
FIELD FieldData 2
DistanceMagn 1 2915 double
0.16743238049 0.23878580344 0.19722736134 0.42298626187 0.49357135625 0.42037656966 0.12077395873 0.020112709561 0.075775290711 
0.49839423014 0.49203792521 0.49086254874 0.27523183354 0.35398575635 0.38774351729 0.31846865622 0.33395101964 0.33280052173 
0.31394870627 0.29792704935 0.3634370869 1.1017944822 1.064806174 1.015661207 0.0044899589859 0.098075167982 0.08417497949 
0.17421987924 0.19164739929 0.19170798356 0.77151238815 0.79767540521 0.72355747721 0.077593933243 0.10302869474 0.10219023063 
0.64952621369 0.69521051103 0.63080650695 0.019937312015 0.078544433633 0.027389166708 0.14938119653 0.056687537376 0.22652487784 
0.63014459209 0.68081525881 0.60922220233 0.25831900681 0.21707911003 0.1812077721 0.18660252562 0.25810034831 0.18797750809 
0.45600492409 0.46454379603 0.47029745274 0.089321192635 0.068388664978 0.050698473065 0.19277127566 0.26688095639 0.19437591663 
0.35022538131 0.47513628286 0.072349739497 0.1214197545 0.058520165134 0.035740259782 0.23908854035 0.017273165462 0.064412100301 
0.11132070631 0.048429076674 0.29671208134 0.28838881669 0.2707525001 0.76388348211 0.63159095948 0.68115967465 0.057023810019 
0.054073722005 0.010436603958 0.50421961875 0.54107835065 0.49206428743 1.0553036938 0.93996290673 0.87299095265 0.32690083333 
0.39039210805 0.31587523058 0.35738193904 0.2993949018 0.33832092429 0.97867537774 0.84832338683 0.99547516724 0.10827849872 
0.16016039276 0.15324629705 0.0072051298415 0.33357679105 0.22055271863 0.3012951502 0.16694430785 0.24874868672 0.21482059775 
0.050768589878 0.071935658286 0.033523509492 0.14763982764 0.0064907986852 0.085794084239 0.34758259673 0.32984576537 0.25734480738 
1.0897317674 1.068209058 0.44578934127 0.48253897908 0.42593515607 0.12751036753 0.063007499422 0.013018360855 0.25137897653 
0.22733643293 0.10654054344 0.0017522493994 0.0090762458845 0.053037452788 0.030899047832 0.56613032076 0.56427402083 0.55390424368 
1.0525997038 0.97911575921 1.0059377036 0.45482865009 0.51250362719 0.48793491099 0.56427211236 0.56613606895 0.51653676502 
0.37450480149 0.31123591245 0.31855896274 0.029246573954 0.090008450035 0.10640545391 0.86700653023 0.81948611448 0.75439880557 
0.067305665318 0.029431750724 0.052913686314 0.17056950593 0.31845746013 0.2562078957 0.52307175223 0.53696888952 0.55000153932 
0.067892472632 0.046680933405 0.060411626213 0.36102143072 0.32110200213 0.37535620242 0.020922201734 0.013442749065 0.071972806681 
0.1137672855 0.14896082523 0.72057768469 0.75148801955 0.71315655008 0.092124873742 0.089747621104 0.11260897124 0.0078054780699 
0.073356567206 1.0192469711 0.99820436517 0.92405811951 0.11267511574 0.18424977974 0.18253075491 0.3385647889 0.38697488753 
0.48770024948 0.50313439935 0.47403433195 0.39217242048 0.26762013532 0.44414174439 0.47281228166 0.46388333918 0.26046899495 
0.16921113244 0.42517119109 0.157961611 0.0070078507465 0.12445690434 0.54586878006 0.58825099314 0.53500850442 0.24466301639 
0.33194886104 0.27520398917 0.239883824 0.3597670537 0.27135589391 0.49998471241 0.57056741158 0.080592699054 0.068126885184 
0.019653195206 0.5155482567 0.70275563921 0.6024701633 0.18282573049 0.19464095285 0.26051140282 0.065183774978 0.063446454428 
0.044001728732 0.1662053402 0.15044283316 0.1591423859 0.57546300804 0.48513002111 0.35984806295 0.28156349844 0.36180295939 
0.3986799558 0.31340235849 0.54742892448 0.57665873508 0.45796989054 0.24427731964 0.20468863314 0.072069925935 0.099528462001 
0.14398355703 0.092875261298 0.41873792677 0.39710643387 0.37990596595 0.25844825983 0.31834880862 0.54986767908 0.56104022484 
0.5570953056 0.1170076133 0.18036302959 0.19226234693 0.47800714456 0.42078625558 0.40071665076 0.53851644753 0.47346148197 
0.42025571739 0.33110700017 0.19405499801 0.17872307801 0.24042391795 0.55876899338 0.58618177251 0.56339926308 0.33641288697 
0.40125331714 0.36714729961 0.41464339934 0.42248184779 0.21890665407 0.22917941556 0.29513098228 0.8806649933 0.86365800143 
0.90043666065 0.086687123626 0.018098104565 0.10529416223 0.62378230008 0.53742835974 0.66371353454 0.29151746169 0.25014843915 
0.26598433248 0.055140070509 0.019833747845 0.056751318452 0.49515066071 0.58175904371 0.53054629795 0.21422303063 0.1837434882 
0.17798080077 0.40677720565 0.3615779829 0.38680777287 0.011687538306 0.11391757933 0.013904088727 0.091487978545 0.052409547213 
0.29568801313 0.19433391251 0.18222482564 0.091008950138 0.12437898568 0.051390714528 0.17945119402 0.13627740258 0.14582503086 
0.69155333886 0.58957772048 0.47004784854 1.0140344973 1.0886127709 1.0765936909 0.044510165453 0.03765242459 0.034953658964 
0.1781872527 0.19779055655 0.27985150348 0.012742819467 0.036016011023 0.043325670132 0.52967289 0.58948773256 0.6228953419 
0.39641674932 0.4270648138 0.5427001203 0.1202525442 0.046599873423 0.33173888814 0.12104950612 0.17221923128 0.72371320221 
0.59011376475 0.64400411294 0.0074081291843 0.011499001309 0.033325649737 0.27231141818 0.29284493633 0.23692453598 0.74024308982 
0.6410871023 0.75736341771 0.16241570941 0.089796576815 0.15236319237 0.53615197103 0.56246977188 0.54836099659 0.61965130474 
0.3668536255 0.26600405648 0.28891969116 0.42405972064 0.40964380432 0.3835383246 0.70250665302 0.65398219525 0.5832336227 
0.432502358 0.42501001092 0.46075433322 0.53141187875 0.56124548438 0.46077357398 0.0075174535644 0.012190193986 0.041813545179 
0.1727218164 0.13066239047 0.26298562252 0.28338698394 0.50992263162 0.5058012482 0.59032911492 0.5632845631 0.16407300415 
0.14864016556 0.61503637866 0.50577758741 0.49421695535 0.2500987499 0.27705065909 0.27031972894 0.055069567972 0.060367970693 
0.11559199471 0.087946400406 0.069831869852 0.48535238378 0.48811690045 0.54458479482 0.54467013799 0.66163909371 0.61325253138 
0.069900856509 0.055958739523 0.0053034476008 0.67379852213 0.83914917722 0.67653817321 0.59708540016 0.64890214612 0.69649292306 
0.31041872026 0.30257828995 0.3848781811 0.22508857133 0.28323218389 0.34737235603 0.22223742976 0.26526308158 0.10224642485 
0.14427468524 0.29806331024 0.65109778949 0.50735151545 0.67807703312 0.40699910325 0.47225832168 0.34387503806 0.32219675564 
0.30158709021 0.29935322072 0.12681719792 0.090521950149 0.56075553577 0.49100160129 0.60405574519 0.36664222161 0.43262487443 
0.19755786952 0.11072544491 0.23877071358 0.54646400253 0.61104141224 0.60939016716 0.60280493521 0.36049434243 0.29295535454 
0.90350281841 0.78371464395 0.032790065043 0.035007867435 0.023500291883 0.52738524517 0.46521476944 0.44659934377 0.71318932346 
0.8345532725 0.77533267218 0.092122195532 0.063169532731 0.055505336878 0.90608466879 0.90144205513 0.92505443914 0.26971569569 
0.28914629482 0.27678270299 0.002876622691 0.033008859644 0.41944208208 0.45409410763 0.46627699129 0.21081222767 0.52379767626 
0.51958320031 0.44659678509 0.089126074121 0.027415462104 0.50267753256 0.46773320748 0.46131299952 0.52472506812 0.050666352519 
0.091704770256 0.026615242531 0.097392557262 0.054152586177 0.11503758299 0.041092384258 0.42478949019 0.45856243349 0.084023024915 
0.16467240014 0.24514397504 0.40547915718 0.5812464394 0.37379514144 0.43498911412 0.31353934327 0.3030297121 0.38901410632 
0.31588529114 0.30102005844 0.36690788187 0.61354670529 0.5386875169 0.53325778362 0.017822795792 0.0076238724927 0.017262861444 
0.27938497268 0.23262599141 0.19170730831 0.40117057478 0.42828816471 0.46571828976 0.029948351308 0.020120671402 0.055312427075 
0.022320821258 0.0056345226293 0.0028037531488 0.40486308792 0.46284023485 0.43895778044 0.39102597166 0.4236666389 0.11626404837 
1.1255378322 1.1238618112 1.1193535638 0.85418870875 0.8572081641 0.97416448423 0.28740696347 0.2829716238 0.09593427241 
0.12364322739 0.025686934547 0.17168544815 0.035971682194 0.076236220511 0.040687121939 0.1478536595 0.049460618019 0.0054173971403 
0.31089184497 0.27427577926 0.42629302893 0.27046610679 0.25077148443 0.26419632401 0.23646421363 0.8925918232 0.84743676294 
1.0129337038 0.56836770436 0.61177939488 0.2958642056 0.26480509641 0.34016378991 0.52730916137 0.47038872011 0.00056209547407 
0.010443388444 1.0989231284 0.97588550866 0.99215166488 0.32763893972 0.30577232326 0.70508051661 0.73749384339 0.78126730964 
0.38275911761 0.41599945665 0.450609824 0.29239833946 0.2752588836 0.26759349496 0.21939683591 0.16013644033 0.16376338487 
0.40352502671 0.39081635556 0.43309963448 0.0021755715633 0.31056570297 0.25759508988 0.077185579274 0.11526620394 0.012124590198 
0.16375801618 0.3242059326 0.29893701923 0.2445534681 0.02357047553 0.023036073861 0.01486996123 0.61077167244 0.68995486009 
0.10314424379 0.0097373570516 0.0015318022387 0.34430329834 0.36777817075 0.42546143857 0.042368364705 0.17870316552 0.12945555688 
0.051614665788 0.20507223016 0.29568338333 0.185333267 0.36271993638 0.32108872459 0.44804407785 0.49061873779 0.42614923922 
0.4843206009 0.48809130904 0.55140691143 0.49712833656 0.12604084142 0.48956202464 0.43345100537 0.45735894867 0.23137383062 
0.23487893681 0.2567935077 0.23244965427 0.28495232764 0.49478585086 0.46420246333 0.42247153259 0.28594753098 0.63694866199 
0.89597943646 0.88696851172 0.89996406934 0.1887857053 0.093898471417 0.11036211404 0.1608842306 0.66655059877 0.37694480292 
0.59183326743 0.55672184802 0.55293659197 0.39887796116 0.023495584393 0.22501545063 0.17829799587 0.22711427275 0.38880036652 
0.35341249326 0.36489452448 0.80893744138 0.16247295033 0.39476505554 0.49104589259 0.58836803602 0.024439221378 0.003219668683 
0.0029820200503 0.24774589835 0.048597648396 0.081225124132 0.29601209604 0.56063730361 0.9930775485 1.0995215243 0.069175809195 
1.0282757861 1.0184517451 1.1344462938 0.39079576999 0.39141598691 0.32631362658 0.39161399659 0.23561838148 0.37946151751 
0.26893057008 0.30806013074 0.36585823045 0.3384290023 0.3566854447 0.96283508724 0.95749046393 0.93869546752 0.39026603298 
0.39986854859 0.16525273998 0.042156059971 0.054220880084 0.033192122565 0.10711832202 0.37359095078 0.41549168045 0.26743852309 
0.72860823087 0.57944807445 0.099058896133 0.13501328133 0.16693432564 0.30204808082 0.085043495744 0.15120661162 1.1141040272 
0.4619729129 0.12684556965 0.28652989279 0.27548156057 0.37779321704 0.38323702302 0.44468775833 1.0090869898 0.92002639672 
1.0018529082 0.28405959018 0.30114951656 0.14237366855 0.16311310073 0.11324640817 0.57499704919 0.51636357856 0.55158040358 
0.46807688111 0.50293567009 0.46651370161 0.034272627253 0.12275936531 0.25467904745 0.2907063435 0.21240676946 0.13545050415 
0.1054180976 0.10252942558 0.3729615472 0.44828330455 0.48284596345 0.036064771095 0.049834094562 0.030568172086 0.26825765734 
0.33104851249 0.33985557434 0.93921695634 0.34763882783 0.30493259354 0.30908167599 0.42952623375 0.40270139094 0.50690250209 
0.048647845401 0.036174786482 0.035171995767 0.44704928354 0.34099276678 0.33610108744 0.26305071435 0.086729678253 0.057727980675 
0.15243287889 0.60503732126 0.57451248867 1.1651132809 1.1139210087 1.1375425727 0.072613112551 0.033641597285 0.3342764418 
0.34977146043 0.36583297233 0.83470413407 0.96173654524 0.49686214108 0.46728391023 0.45431159357 0.018570287635 0.034298251167 
0.22266564336 0.22019566387 0.0049154535115 0.25735244416 0.17287792414 0.049418549499 0.40793761288 0.41408555628 0.24405951606 
0.30555700034 0.39333227398 0.39630676796 0.27462869321 0.34511879231 0.24545026861 0.35874545456 0.039816078361 0.59584659432 
0.11201558794 0.17906516957 0.17915007635 0.10095505323 0.064224332345 0.25913016674 0.31942308317 0.27529444622 0.26929799157 
0.35403963109 0.073000792126 0.063920239431 0.12447346619 0.44111592026 0.41514205699 0.47647904696 0.7774714539 0.69023487963 
0.8271582229 0.58706550548 0.50677807838 0.54799000544 0.016839381754 0.054581771545 0.14965742879 0.074280990376 0.089475805583 
0.017255535496 0.11780950735 0.17501106282 0.22701227413 0.19550645922 0.26365025848 0.19470277537 0.20703943707 0.033654630718 
0.0088788369219 0.036635634812 0.058198810025 0.16071381275 0.10275402152 0.1136325509 0.19584135742 0.020027578125 0.13060024812 
1.1070400469 1.0422377488 1.1010501398 1.282110004 0.99566411602 0.27548375214 0.19281607178 0.33670207834 0.076968004785 
0.0074074448825 0.04094417204 0.41760591652 0.19453493286 0.27127830808 0.13188682427 0.15395683542 0.073989420188 0.53124340223 
0.49410078954 0.41840924336 0.34713339338 0.4686039397 0.31861500603 1.0915790289 1.163293736 1.1640228452 0.85146089876 
0.82095015504 0.83825741509 0.0014717717874 0.032984906198 0.10401577191 0.11435718574 0.50967203994 0.38284613477 0.47655879241 
0.37478334583 0.3207180797 0.3869119898 1.2943149354 1.0816157439 1.0964866593 1.0089270738 0.96617357734 0.085818361343 
0.016720871139 0.18073558552 0.0925012671 0.13161625987 0.40638526083 0.13955336978 0.19533132831 0.30018916415 0.40802399302 
0.20576318914 0.20496467328 0.17719312726 0.22262933023 0.19068747792 0.31865362629 0.44149586048 0.24536402588 0.57830022069 
0.0061472228761 0.71842925458 0.47840449205 0.48720300966 0.60724487085 0.5023566038 0.41003727567 0.32784727264 0.26149537554 
0.2656506078 0.42982429561 0.032704025758 0.098116518227 0.18657953821 0.19880914805 0.17711952759 0.37592764987 0.17760315159 
0.059041415861 0.082583734887 0.048617717238 0.29904611372 0.3304904257 0.20084848135 0.075945875081 0.11056687493 0.044467021604 
0.39297002105 0.43923671697 0.39491724335 0.26931869092 0.22739984161 0.28128333797 0.49979374723 0.57204465307 0.55133443295 
0.55758360073 0.10755695869 0.05764062025 0.01465670752 0.040160317348 0.1733309821 0.14858640651 0.13213140219 0.58707021207 
0.59916819245 0.58105770526 0.11824490716 0.071451966362 0.40525432022 0.088821733031 0.19556749415 0.016920655491 0.054835605968 
0.0086899974792 0.50156335211 0.28514240957 0.31590335658 0.19522045399 0.256460054 0.17021705816 0.47296489122 0.47407285623 
0.37463822174 0.3417822094 0.38451302328 0.53646514962 0.57183561122 0.17606125617 0.17607660629 0.21479588799 0.077061272819 
0.11678894089 0.1780868442 0.33774898991 0.64304766901 0.71447113732 0.19668942327 0.11619164162 0.20489063357 0.10766603622 
0.13846447598 0.019055462171 0.027321458944 0.039383020625 0.027242619891 0.54191333956 0.3927020604 0.48052959436 0.095799658998 
0.034375212915 0.038563370352 0.12888503579 0.035982321919 0.020203579642 0.015275481036 0.079654783295 0.69317816493 0.35153847536 
0.12475293897 0.16943852271 0.20927948834 0.10016023996 0.16149780056 0.39925516264 0.18099977992 0.092904764688 0.76709595536 
0.69144434872 0.43808908737 0.33718638379 0.56433901956 0.49398928221 0.45647568566 0.28304543749 0.15614279054 0.52199633591 
0.52375586203 0.8355206424 1.151754154 0.028374878217 0.028342604268 0.034449619168 0.56276271038 0.64436300485 0.62077653636 
0.1247774947 0.20803429869 0.20229657152 0.23239366263 0.2726417457 0.39786692849 0.35557190973 0.40178891072 0.37185707013 
0.23178164018 0.43464329765 0.26327363726 0.38676152862 0.55292828989 0.60970595504 0.6196438579 0.48959487653 0.59501928055 
0.031999599317 0.067437254364 0.061318608911 0.36529763968 0.21546930755 0.043752979753 0.040128546442 0.021445475624 0.76720208159 
0.6546807976 0.52927154954 0.52546213546 0.53601993257 0.07200154566 0.23233201957 0.26079213013 0.26747929603 0.46065934537 
0.092491671421 0.40008564349 0.28579053151 0.42920385684 0.41470321484 0.24500409533 0.29219827127 0.26049806543 0.15533604163 
0.047312705158 0.3651111178 0.019554561882 0.018837276357 0.023194731189 0.15483827711 0.22284511959 0.1767993554 0.14677275863 
0.062557562222 0.015664661549 0.15352287381 0.1225202147 0.10717921289 0.52343561902 0.31662585024 0.43757459816 0.56479068804 
0.41687556377 0.45376812508 0.34857134942 0.11041704752 0.16827169633 0.14024040126 0.51692495276 0.00093181071191 0.046019291154 
0.011025961611 0.050916169116 0.038890412356 0.14513290707 0.03807234547 0.26396500847 0.27566279463 0.26300057639 0.55662764159 
0.59719356035 0.28626640745 0.25213283925 0.19105558363 0.31710565195 0.49170123568 0.47472752137 0.26762885867 0.25703652962 
0.28477876442 0.2223863024 0.16966607158 0.14433508986 0.44898143794 0.40770490081 0.4430911391 0.57121250501 0.58429854704 
0.54729132745 0.098029495207 0.1490869545 0.50753659181 0.58659392656 0.54258738923 0.043116293737 0.59673321048 0.60981852296 
0.72391326796 0.65366262174 0.34907734416 0.44191511437 0.077908093897 0.00026945509472 0.10033022625 0.41640755432 0.25856292666 
0.12084391465 0.074062719611 0.15395396988 0.091920829564 0.10345211882 0.26521081095 0.30153971651 0.2325549302 0.5139187602 
0.19012486573 0.21708661425 0.26485068029 0.027396874986 9.8384794262e-05 0.010994345729 0.54327281724 0.50325487102 0.45021591274 
0.5464255004 0.035646643574 0.13747623898 0.067364782388 0.57748404504 0.62653799606 0.39097088379 0.47720655083 0.52751985933 
0.70651747565 0.6402701995 0.59328803473 0.75710009746 0.81650819989 0.17273201862 0.21837665862 0.1894503725 0.22732438697 
0.39063991949 0.19640035244 0.24598975292 0.20735051049 0.075965765708 0.48092049853 0.58000892583 0.87001855449 0.59897353179 
0.61063397779 0.81345070243 0.79237355786 0.061775810845 0.0071769245397 0.028595636613 0.67176864745 0.75292448727 0.71525027727 
0.38892235624 0.36392203138 0.46782776353 0.207644471 0.1969514747 0.73959917291 0.87830889957 0.41806908669 0.69037913631 
0.15865029715 0.10185050691 0.027637320679 0.020411075381 0.59032402076 0.58545424709 0.18482030217 0.11202267973 0.16150904351 
0.19352576578 0.53592079395 0.0097165389643 0.32262831128 0.260384784 0.41143719704 0.37252143202 0.48676954349 0.33617792832 
0.16524588638 0.18920957973 0.39381868923 0.31906303487 0.46385646331 0.322512773 0.39840903223 0.35358778622 0.25907267569 
0.34803857871 0.35715703892 0.3780213972 0.52497612485 0.4711565823 0.35445203986 0.2999483501 0.23722839903 0.080263657529 
0.60082883024 0.25779746514 0.33745633576 0.25862696859 0.21707669791 0.21205836189 0.19706206328 0.20540827425 0.56891043544 
0.48218462158 0.42617904152 0.45919630375 0.42227093609 0.68059126818 0.75714748445 0.77343300809 0.11962902784 0.1421962371 
0.17079517732 0.393025657 0.30897327157 0.44538806013 0.071366430304 0.048905529139 0.0032618061909 0.36196078334 0.67275423939 
0.77130311936 0.74306468058 0.22557481784 0.28356465886 0.15383042317 0.3651203928 0.69165683045 0.53285669783 0.0062603419514 
0.25021736835 0.2815044119 0.23778094241 0.037259369197 0.15266220315 0.69294971926 0.80966912669 0.31133002624 0.049190495131 
0.27025114571 0.050868161127 0.096312899591 0.47643582921 0.40439500626 0.45257971908 0.55509373021 0.57140855111 0.10420165119 
0.237982264 0.13337470824 0.25579162644 0.25973803888 0.010538631698 0.015081626014 0.06740999433 0.29940228279 0.31982981958 
0.0734499275 0.35000050536 0.29006015941 0.26913697421 0.19400085369 0.10389516852 0.027239077674 0.0018197496111 0.044434172905 
0.69717323634 0.69406722494 0.275883905 0.27342902557 0.1479120334 0.030730633403 0.032863313925 0.41666202877 0.42313534839 
0.29466536066 0.5661334659 0.51371940637 0.55318254771 0.40311323223 0.36970386796 0.34558301588 0.33325190443 0.31465572584 
0.16914485116 0.69035030939 0.69858868221 0.23358502132 0.24621791063 0.19810815341 0.42386700945 0.49205682184 0.53509130738 
0.20913501884 0.2366298775 0.051799241089 0.055906301963 0.40963059604 0.33060075483 0.46383737335 0.061807486187 0.099549864157 
0.27600054021 0.34267809923 0.42690116738 0.014127452963 0.023214419629 0.34528776804 0.53023633752 0.60919529005 0.52595236342 
0.40629041929 0.092752171222 0.0058930703194 0.45631796117 0.42212766612 0.30556167184 0.63874980638 0.62589046381 0.8663805326 
0.83664197687 0.79779769106 0.42191127785 0.044774011755 0.086921903828 0.052244704454 0.10340824539 0.11325169372 0.51601617486 
0.73405224234 0.84032255237 0.17511093018 0.10761451498 0.096876446134 0.035880998842 0.25899099784 0.3026539863 0.15336451777 